# ZrO2 Sigma 5 CSL <001>{110}

3840 atoms
2 atom types
-10.19999981 10.19999981 xlo xhi
-22.80789375 22.80789375 ylo yhi
-22.80789375 22.80789375 zlo zhi
0.0 0.0 0.0 xy xz yz
Atoms

1	1	0.0	-1.274999619	-7.412565231	-22.23769569
2	1	0.0	-3.824999809	-7.412565231	-22.23769569
3	1	0.0	-6.375	-7.412565231	-22.23769569
4	1	0.0	-8.925000191	-7.412565231	-22.23769569
5	1	0.0	8.925000191	-7.412565231	-22.23769569
6	1	0.0	6.374999046	-7.412565231	-22.23769569
7	1	0.0	3.824999809	-7.412565231	-22.23769569
8	1	0.0	1.274999619	-7.412565231	-22.23769569
9	1	0.0	-1.274999619	-1.71059227	-22.23769569
10	1	0.0	-1.274999619	-5.13177681	-21.09730148
11	2	0.0	0	-3.421182632	-21.66749954
12	1	0.0	-1.274999619	-2.850986481	-19.95690727
13	1	0.0	-3.824999809	-2.850986481	-19.95690727
14	1	0.0	-3.824999809	-1.71059227	-22.23769569
15	1	0.0	-6.375	-1.71059227	-22.23769569
16	1	0.0	-3.824999809	-5.13177681	-21.09730148
17	1	0.0	-6.375	-5.13177681	-21.09730148
18	2	0.0	-5.099999905	-3.421182632	-21.66749954
19	1	0.0	-6.375	-2.850986481	-19.95690727
20	1	0.0	-8.925000191	-2.850986481	-19.95690727
21	1	0.0	-8.925000191	-1.71059227	-22.23769569
22	1	0.0	8.925000191	-1.71059227	-22.23769569
23	1	0.0	-8.925000191	-5.13177681	-21.09730148
24	1	0.0	8.925000191	-5.13177681	-21.09730148
25	2	0.0	-10.19999981	-3.421182632	-21.66749954
26	1	0.0	8.925000191	-2.850986481	-19.95690727
27	1	0.0	6.374999046	-2.850986481	-19.95690727
28	1	0.0	6.374999046	-1.71059227	-22.23769569
29	1	0.0	3.824999809	-1.71059227	-22.23769569
30	1	0.0	6.374999046	-5.13177681	-21.09730148
31	1	0.0	3.824999809	-5.13177681	-21.09730148
32	2	0.0	5.099999428	-3.421182632	-21.66749954
33	1	0.0	3.824999809	-2.850986481	-19.95690727
34	1	0.0	1.274999619	-2.850986481	-19.95690727
35	1	0.0	1.274999619	-1.71059227	-22.23769569
36	1	0.0	1.274999619	-5.13177681	-21.09730148
37	1	0.0	-1.274999619	-0.5701961517	-18.81651306
38	2	0.0	-2.550000191	-1.140394211	-20.52710342
39	1	0.0	-3.824999809	-0.5701961517	-18.81651306
40	1	0.0	-6.375	-0.5701961517	-18.81651306
41	2	0.0	-7.649999619	-1.140394211	-20.52710342
42	1	0.0	-8.925000191	-0.5701961517	-18.81651306
43	1	0.0	8.925000191	-0.5701961517	-18.81651306
44	2	0.0	7.650000572	-1.140394211	-20.52710342
45	1	0.0	6.374999046	-0.5701961517	-18.81651306
46	1	0.0	3.824999809	-0.5701961517	-18.81651306
47	2	0.0	2.550000191	-1.140394211	-20.52710342
48	1	0.0	1.274999619	-0.5701961517	-18.81651306
49	1	0.0	-1.274999619	-18.81651306	-22.23769569
50	1	0.0	-3.824999809	-18.81651306	-22.23769569
51	1	0.0	-6.375	-18.81651306	-22.23769569
52	1	0.0	-8.925000191	-18.81651306	-22.23769569
53	1	0.0	8.925000191	-18.81651306	-22.23769569
54	1	0.0	6.374999046	-18.81651306	-22.23769569
55	1	0.0	3.824999809	-18.81651306	-22.23769569
56	1	0.0	1.274999619	-18.81651306	-22.23769569
57	1	0.0	-1.274999619	-13.11453819	-22.23769569
58	1	0.0	-1.274999619	-16.53572273	-21.09730148
59	2	0.0	0	-14.82513046	-21.66749954
60	1	0.0	-1.274999619	-14.25493336	-19.95690727
61	1	0.0	-3.824999809	-14.25493336	-19.95690727
62	1	0.0	-3.824999809	-13.11453819	-22.23769569
63	1	0.0	-6.375	-13.11453819	-22.23769569
64	1	0.0	-3.824999809	-16.53572273	-21.09730148
65	1	0.0	-6.375	-16.53572273	-21.09730148
66	2	0.0	-5.099999905	-14.82513046	-21.66749954
67	1	0.0	-6.375	-14.25493336	-19.95690727
68	1	0.0	-8.925000191	-14.25493336	-19.95690727
69	1	0.0	-8.925000191	-13.11453819	-22.23769569
70	1	0.0	8.925000191	-13.11453819	-22.23769569
71	1	0.0	-8.925000191	-16.53572273	-21.09730148
72	1	0.0	8.925000191	-16.53572273	-21.09730148
73	2	0.0	-10.19999981	-14.82513046	-21.66749954
74	1	0.0	8.925000191	-14.25493336	-19.95690727
75	1	0.0	6.374999046	-14.25493336	-19.95690727
76	1	0.0	6.374999046	-13.11453819	-22.23769569
77	1	0.0	3.824999809	-13.11453819	-22.23769569
78	1	0.0	6.374999046	-16.53572273	-21.09730148
79	1	0.0	3.824999809	-16.53572273	-21.09730148
80	2	0.0	5.099999428	-14.82513046	-21.66749954
81	1	0.0	3.824999809	-14.25493336	-19.95690727
82	1	0.0	1.274999619	-14.25493336	-19.95690727
83	1	0.0	1.274999619	-13.11453819	-22.23769569
84	1	0.0	1.274999619	-16.53572273	-21.09730148
85	1	0.0	-1.274999619	-8.552960396	-19.95690727
86	1	0.0	-1.274999619	-11.97414398	-18.81651306
87	1	0.0	-1.274999619	-10.83374977	-21.09730148
88	1	0.0	-3.824999809	-10.83374977	-21.09730148
89	2	0.0	0	-10.26355171	-19.38670921
90	1	0.0	-1.274999619	-9.69335556	-17.67611694
91	1	0.0	-3.824999809	-9.69335556	-17.67611694
92	2	0.0	-2.550000191	-9.123156548	-21.66749954
93	1	0.0	-3.824999809	-8.552960396	-19.95690727
94	1	0.0	-6.375	-8.552960396	-19.95690727
95	2	0.0	-2.550000191	-12.54434204	-20.52710342
96	1	0.0	-3.824999809	-11.97414398	-18.81651306
97	1	0.0	-6.375	-11.97414398	-18.81651306
98	1	0.0	-6.375	-10.83374977	-21.09730148
99	1	0.0	-8.925000191	-10.83374977	-21.09730148
100	2	0.0	-5.099999905	-10.26355171	-19.38670921
101	1	0.0	-6.375	-9.69335556	-17.67611694
102	1	0.0	-8.925000191	-9.69335556	-17.67611694
103	2	0.0	-7.649999619	-9.123156548	-21.66749954
104	1	0.0	-8.925000191	-8.552960396	-19.95690727
105	1	0.0	8.925000191	-8.552960396	-19.95690727
106	2	0.0	-7.649999619	-12.54434204	-20.52710342
107	1	0.0	-8.925000191	-11.97414398	-18.81651306
108	1	0.0	8.925000191	-11.97414398	-18.81651306
109	1	0.0	8.925000191	-10.83374977	-21.09730148
110	1	0.0	6.374999046	-10.83374977	-21.09730148
111	2	0.0	-10.19999981	-10.26355171	-19.38670921
112	1	0.0	8.925000191	-9.69335556	-17.67611694
113	1	0.0	6.374999046	-9.69335556	-17.67611694
114	2	0.0	7.650000572	-9.123156548	-21.66749954
115	1	0.0	6.374999046	-8.552960396	-19.95690727
116	1	0.0	3.824999809	-8.552960396	-19.95690727
117	2	0.0	7.650000572	-12.54434204	-20.52710342
118	1	0.0	6.374999046	-11.97414398	-18.81651306
119	1	0.0	3.824999809	-11.97414398	-18.81651306
120	1	0.0	3.824999809	-10.83374977	-21.09730148
121	1	0.0	1.274999619	-10.83374977	-21.09730148
122	2	0.0	5.099999428	-10.26355171	-19.38670921
123	1	0.0	3.824999809	-9.69335556	-17.67611694
124	1	0.0	1.274999619	-9.69335556	-17.67611694
125	2	0.0	2.550000191	-9.123156548	-21.66749954
126	1	0.0	1.274999619	-8.552960396	-19.95690727
127	2	0.0	2.550000191	-12.54434204	-20.52710342
128	1	0.0	1.274999619	-11.97414398	-18.81651306
129	1	0.0	-1.274999619	-3.991382599	-17.67611694
130	1	0.0	-1.274999619	-7.412565231	-16.53572273
131	2	0.0	0	-6.842368126	-20.52710342
132	1	0.0	-1.274999619	-6.272171021	-18.81651306
133	1	0.0	-3.824999809	-6.272171021	-18.81651306
134	2	0.0	0	-5.701972961	-17.10592079
135	1	0.0	-1.274999619	-5.13177681	-15.39532852
136	1	0.0	-3.824999809	-5.13177681	-15.39532852
137	2	0.0	-2.550000191	-4.561578751	-19.38670921
138	1	0.0	-3.824999809	-3.991382599	-17.67611694
139	1	0.0	-6.375	-3.991382599	-17.67611694
140	2	0.0	-2.550000191	-7.98276329	-18.246315
141	1	0.0	-3.824999809	-7.412565231	-16.53572273
142	1	0.0	-6.375	-7.412565231	-16.53572273
143	2	0.0	-5.099999905	-6.842368126	-20.52710342
144	1	0.0	-6.375	-6.272171021	-18.81651306
145	1	0.0	-8.925000191	-6.272171021	-18.81651306
146	2	0.0	-5.099999905	-5.701972961	-17.10592079
147	1	0.0	-6.375	-5.13177681	-15.39532852
148	1	0.0	-8.925000191	-5.13177681	-15.39532852
149	2	0.0	-7.649999619	-4.561578751	-19.38670921
150	1	0.0	-8.925000191	-3.991382599	-17.67611694
151	1	0.0	8.925000191	-3.991382599	-17.67611694
152	2	0.0	-7.649999619	-7.98276329	-18.246315
153	1	0.0	-8.925000191	-7.412565231	-16.53572273
154	1	0.0	8.925000191	-7.412565231	-16.53572273
155	2	0.0	-10.19999981	-6.842368126	-20.52710342
156	1	0.0	8.925000191	-6.272171021	-18.81651306
157	1	0.0	6.374999046	-6.272171021	-18.81651306
158	2	0.0	-10.19999981	-5.701972961	-17.10592079
159	1	0.0	8.925000191	-5.13177681	-15.39532852
160	1	0.0	6.374999046	-5.13177681	-15.39532852
161	2	0.0	7.650000572	-4.561578751	-19.38670921
162	1	0.0	6.374999046	-3.991382599	-17.67611694
163	1	0.0	3.824999809	-3.991382599	-17.67611694
164	2	0.0	7.650000572	-7.98276329	-18.246315
165	1	0.0	6.374999046	-7.412565231	-16.53572273
166	1	0.0	3.824999809	-7.412565231	-16.53572273
167	2	0.0	5.099999428	-6.842368126	-20.52710342
168	1	0.0	3.824999809	-6.272171021	-18.81651306
169	1	0.0	1.274999619	-6.272171021	-18.81651306
170	2	0.0	5.099999428	-5.701972961	-17.10592079
171	1	0.0	3.824999809	-5.13177681	-15.39532852
172	1	0.0	1.274999619	-5.13177681	-15.39532852
173	2	0.0	2.550000191	-4.561578751	-19.38670921
174	1	0.0	1.274999619	-3.991382599	-17.67611694
175	2	0.0	2.550000191	-7.98276329	-18.246315
176	1	0.0	1.274999619	-7.412565231	-16.53572273
177	1	0.0	-1.274999619	-2.850986481	-14.25493336
178	2	0.0	0	-2.280790329	-18.246315
179	1	0.0	-1.274999619	-1.71059227	-16.53572273
180	1	0.0	-3.824999809	-1.71059227	-16.53572273
181	2	0.0	0	-1.140394211	-14.82513046
182	1	0.0	-1.274999619	-0.5701961517	-13.11453819
183	1	0.0	-3.824999809	-0.5701961517	-13.11453819
184	2	0.0	-2.550000191	0	-17.10592079
185	2	0.0	-2.550000191	-3.421182632	-15.96552467
186	1	0.0	-3.824999809	-2.850986481	-14.25493336
187	1	0.0	-6.375	-2.850986481	-14.25493336
188	2	0.0	-5.099999905	-2.280790329	-18.246315
189	1	0.0	-6.375	-1.71059227	-16.53572273
190	1	0.0	-8.925000191	-1.71059227	-16.53572273
191	2	0.0	-5.099999905	-1.140394211	-14.82513046
192	1	0.0	-6.375	-0.5701961517	-13.11453819
193	1	0.0	-8.925000191	-0.5701961517	-13.11453819
194	2	0.0	-7.649999619	0	-17.10592079
195	2	0.0	-7.649999619	-3.421182632	-15.96552467
196	1	0.0	-8.925000191	-2.850986481	-14.25493336
197	1	0.0	8.925000191	-2.850986481	-14.25493336
198	2	0.0	-10.19999981	-2.280790329	-18.246315
199	1	0.0	8.925000191	-1.71059227	-16.53572273
200	1	0.0	6.374999046	-1.71059227	-16.53572273
201	2	0.0	-10.19999981	-1.140394211	-14.82513046
202	1	0.0	8.925000191	-0.5701961517	-13.11453819
203	1	0.0	6.374999046	-0.5701961517	-13.11453819
204	2	0.0	7.650000572	0	-17.10592079
205	2	0.0	7.650000572	-3.421182632	-15.96552467
206	1	0.0	6.374999046	-2.850986481	-14.25493336
207	1	0.0	3.824999809	-2.850986481	-14.25493336
208	2	0.0	5.099999428	-2.280790329	-18.246315
209	1	0.0	3.824999809	-1.71059227	-16.53572273
210	1	0.0	1.274999619	-1.71059227	-16.53572273
211	2	0.0	5.099999428	-1.140394211	-14.82513046
212	1	0.0	3.824999809	-0.5701961517	-13.11453819
213	1	0.0	1.274999619	-0.5701961517	-13.11453819
214	2	0.0	2.550000191	0	-17.10592079
215	2	0.0	2.550000191	-3.421182632	-15.96552467
216	1	0.0	1.274999619	-2.850986481	-14.25493336
217	1	0.0	-1.274999619	15.39532661	-22.23769569
218	1	0.0	-3.824999809	15.39532661	-22.23769569
219	1	0.0	-6.375	15.39532661	-22.23769569
220	1	0.0	-8.925000191	15.39532661	-22.23769569
221	1	0.0	8.925000191	15.39532661	-22.23769569
222	1	0.0	6.374999046	15.39532661	-22.23769569
223	1	0.0	3.824999809	15.39532661	-22.23769569
224	1	0.0	1.274999619	15.39532661	-22.23769569
225	1	0.0	-1.274999619	21.09729958	-22.23769569
226	1	0.0	-1.274999619	17.67611885	-21.09730148
227	2	0.0	0	19.38670921	-21.66749954
228	1	0.0	-1.274999619	19.95690727	-19.95690727
229	1	0.0	-3.824999809	19.95690727	-19.95690727
230	1	0.0	-3.824999809	21.09729958	-22.23769569
231	1	0.0	-6.375	21.09729958	-22.23769569
232	1	0.0	-3.824999809	17.67611885	-21.09730148
233	1	0.0	-6.375	17.67611885	-21.09730148
234	2	0.0	-5.099999905	19.38670921	-21.66749954
235	1	0.0	-6.375	19.95690727	-19.95690727
236	1	0.0	-8.925000191	19.95690727	-19.95690727
237	1	0.0	-8.925000191	21.09729958	-22.23769569
238	1	0.0	8.925000191	21.09729958	-22.23769569
239	1	0.0	-8.925000191	17.67611885	-21.09730148
240	1	0.0	8.925000191	17.67611885	-21.09730148
241	2	0.0	-10.19999981	19.38670921	-21.66749954
242	1	0.0	8.925000191	19.95690727	-19.95690727
243	1	0.0	6.374999046	19.95690727	-19.95690727
244	1	0.0	6.374999046	21.09729958	-22.23769569
245	1	0.0	3.824999809	21.09729958	-22.23769569
246	1	0.0	6.374999046	17.67611885	-21.09730148
247	1	0.0	3.824999809	17.67611885	-21.09730148
248	2	0.0	5.099999428	19.38670921	-21.66749954
249	1	0.0	3.824999809	19.95690727	-19.95690727
250	1	0.0	1.274999619	19.95690727	-19.95690727
251	1	0.0	1.274999619	21.09729958	-22.23769569
252	1	0.0	1.274999619	17.67611885	-21.09730148
253	1	0.0	-1.274999619	-19.95690727	-19.95690727
254	1	0.0	-1.274999619	22.23769569	-18.81651306
255	1	0.0	-1.274999619	-22.23769569	-21.09730148
256	1	0.0	-3.824999809	-22.23769569	-21.09730148
257	2	0.0	0	-21.66749954	-19.38670921
258	1	0.0	-1.274999619	-21.09730148	-17.67611694
259	1	0.0	-3.824999809	-21.09730148	-17.67611694
260	2	0.0	-2.550000191	-20.52710342	-21.66749954
261	1	0.0	-3.824999809	-19.95690727	-19.95690727
262	1	0.0	-6.375	-19.95690727	-19.95690727
263	2	0.0	-2.550000191	21.66750145	-20.52710342
264	1	0.0	-3.824999809	22.23769569	-18.81651306
265	1	0.0	-6.375	22.23769569	-18.81651306
266	1	0.0	-6.375	-22.23769569	-21.09730148
267	1	0.0	-8.925000191	-22.23769569	-21.09730148
268	2	0.0	-5.099999905	-21.66749954	-19.38670921
269	1	0.0	-6.375	-21.09730148	-17.67611694
270	1	0.0	-8.925000191	-21.09730148	-17.67611694
271	2	0.0	-7.649999619	-20.52710342	-21.66749954
272	1	0.0	-8.925000191	-19.95690727	-19.95690727
273	1	0.0	8.925000191	-19.95690727	-19.95690727
274	2	0.0	-7.649999619	21.66750145	-20.52710342
275	1	0.0	-8.925000191	22.23769569	-18.81651306
276	1	0.0	8.925000191	22.23769569	-18.81651306
277	1	0.0	8.925000191	-22.23769569	-21.09730148
278	1	0.0	6.374999046	-22.23769569	-21.09730148
279	2	0.0	-10.19999981	-21.66749954	-19.38670921
280	1	0.0	8.925000191	-21.09730148	-17.67611694
281	1	0.0	6.374999046	-21.09730148	-17.67611694
282	2	0.0	7.650000572	-20.52710342	-21.66749954
283	1	0.0	6.374999046	-19.95690727	-19.95690727
284	1	0.0	3.824999809	-19.95690727	-19.95690727
285	2	0.0	7.650000572	21.66750145	-20.52710342
286	1	0.0	6.374999046	22.23769569	-18.81651306
287	1	0.0	3.824999809	22.23769569	-18.81651306
288	1	0.0	3.824999809	-22.23769569	-21.09730148
289	1	0.0	1.274999619	-22.23769569	-21.09730148
290	2	0.0	5.099999428	-21.66749954	-19.38670921
291	1	0.0	3.824999809	-21.09730148	-17.67611694
292	1	0.0	1.274999619	-21.09730148	-17.67611694
293	2	0.0	2.550000191	-20.52710342	-21.66749954
294	1	0.0	1.274999619	-19.95690727	-19.95690727
295	2	0.0	2.550000191	21.66750145	-20.52710342
296	1	0.0	1.274999619	22.23769569	-18.81651306
297	1	0.0	-1.274999619	-15.39532852	-17.67611694
298	1	0.0	-1.274999619	-18.81651306	-16.53572273
299	2	0.0	0	-18.246315	-20.52710342
300	1	0.0	-1.274999619	-17.67611694	-18.81651306
301	1	0.0	-3.824999809	-17.67611694	-18.81651306
302	2	0.0	0	-17.10592079	-17.10592079
303	1	0.0	-1.274999619	-16.53572273	-15.39532852
304	1	0.0	-3.824999809	-16.53572273	-15.39532852
305	2	0.0	-2.550000191	-15.96552467	-19.38670921
306	1	0.0	-3.824999809	-15.39532852	-17.67611694
307	1	0.0	-6.375	-15.39532852	-17.67611694
308	2	0.0	-2.550000191	-19.38670921	-18.246315
309	1	0.0	-3.824999809	-18.81651306	-16.53572273
310	1	0.0	-6.375	-18.81651306	-16.53572273
311	2	0.0	-5.099999905	-18.246315	-20.52710342
312	1	0.0	-6.375	-17.67611694	-18.81651306
313	1	0.0	-8.925000191	-17.67611694	-18.81651306
314	2	0.0	-5.099999905	-17.10592079	-17.10592079
315	1	0.0	-6.375	-16.53572273	-15.39532852
316	1	0.0	-8.925000191	-16.53572273	-15.39532852
317	2	0.0	-7.649999619	-15.96552467	-19.38670921
318	1	0.0	-8.925000191	-15.39532852	-17.67611694
319	1	0.0	8.925000191	-15.39532852	-17.67611694
320	2	0.0	-7.649999619	-19.38670921	-18.246315
321	1	0.0	-8.925000191	-18.81651306	-16.53572273
322	1	0.0	8.925000191	-18.81651306	-16.53572273
323	2	0.0	-10.19999981	-18.246315	-20.52710342
324	1	0.0	8.925000191	-17.67611694	-18.81651306
325	1	0.0	6.374999046	-17.67611694	-18.81651306
326	2	0.0	-10.19999981	-17.10592079	-17.10592079
327	1	0.0	8.925000191	-16.53572273	-15.39532852
328	1	0.0	6.374999046	-16.53572273	-15.39532852
329	2	0.0	7.650000572	-15.96552467	-19.38670921
330	1	0.0	6.374999046	-15.39532852	-17.67611694
331	1	0.0	3.824999809	-15.39532852	-17.67611694
332	2	0.0	7.650000572	-19.38670921	-18.246315
333	1	0.0	6.374999046	-18.81651306	-16.53572273
334	1	0.0	3.824999809	-18.81651306	-16.53572273
335	2	0.0	5.099999428	-18.246315	-20.52710342
336	1	0.0	3.824999809	-17.67611694	-18.81651306
337	1	0.0	1.274999619	-17.67611694	-18.81651306
338	2	0.0	5.099999428	-17.10592079	-17.10592079
339	1	0.0	3.824999809	-16.53572273	-15.39532852
340	1	0.0	1.274999619	-16.53572273	-15.39532852
341	2	0.0	2.550000191	-15.96552467	-19.38670921
342	1	0.0	1.274999619	-15.39532852	-17.67611694
343	2	0.0	2.550000191	-19.38670921	-18.246315
344	1	0.0	1.274999619	-18.81651306	-16.53572273
345	1	0.0	-1.274999619	-10.83374977	-15.39532852
346	1	0.0	-1.274999619	-14.25493336	-14.25493336
347	2	0.0	0	-13.68473625	-18.246315
348	1	0.0	-1.274999619	-13.11453819	-16.53572273
349	1	0.0	-3.824999809	-13.11453819	-16.53572273
350	2	0.0	0	-12.54434204	-14.82513046
351	1	0.0	-1.274999619	-11.97414398	-13.11453819
352	1	0.0	-3.824999809	-11.97414398	-13.11453819
353	2	0.0	-2.550000191	-11.40394688	-17.10592079
354	1	0.0	-3.824999809	-10.83374977	-15.39532852
355	1	0.0	-6.375	-10.83374977	-15.39532852
356	2	0.0	-2.550000191	-14.82513046	-15.96552467
357	1	0.0	-3.824999809	-14.25493336	-14.25493336
358	1	0.0	-6.375	-14.25493336	-14.25493336
359	2	0.0	-5.099999905	-13.68473625	-18.246315
360	1	0.0	-6.375	-13.11453819	-16.53572273
361	1	0.0	-8.925000191	-13.11453819	-16.53572273
362	2	0.0	-5.099999905	-12.54434204	-14.82513046
363	1	0.0	-6.375	-11.97414398	-13.11453819
364	1	0.0	-8.925000191	-11.97414398	-13.11453819
365	2	0.0	-7.649999619	-11.40394688	-17.10592079
366	1	0.0	-8.925000191	-10.83374977	-15.39532852
367	1	0.0	8.925000191	-10.83374977	-15.39532852
368	2	0.0	-7.649999619	-14.82513046	-15.96552467
369	1	0.0	-8.925000191	-14.25493336	-14.25493336
370	1	0.0	8.925000191	-14.25493336	-14.25493336
371	2	0.0	-10.19999981	-13.68473625	-18.246315
372	1	0.0	8.925000191	-13.11453819	-16.53572273
373	1	0.0	6.374999046	-13.11453819	-16.53572273
374	2	0.0	-10.19999981	-12.54434204	-14.82513046
375	1	0.0	8.925000191	-11.97414398	-13.11453819
376	1	0.0	6.374999046	-11.97414398	-13.11453819
377	2	0.0	7.650000572	-11.40394688	-17.10592079
378	1	0.0	6.374999046	-10.83374977	-15.39532852
379	1	0.0	3.824999809	-10.83374977	-15.39532852
380	2	0.0	7.650000572	-14.82513046	-15.96552467
381	1	0.0	6.374999046	-14.25493336	-14.25493336
382	1	0.0	3.824999809	-14.25493336	-14.25493336
383	2	0.0	5.099999428	-13.68473625	-18.246315
384	1	0.0	3.824999809	-13.11453819	-16.53572273
385	1	0.0	1.274999619	-13.11453819	-16.53572273
386	2	0.0	5.099999428	-12.54434204	-14.82513046
387	1	0.0	3.824999809	-11.97414398	-13.11453819
388	1	0.0	1.274999619	-11.97414398	-13.11453819
389	2	0.0	2.550000191	-11.40394688	-17.10592079
390	1	0.0	1.274999619	-10.83374977	-15.39532852
391	2	0.0	2.550000191	-14.82513046	-15.96552467
392	1	0.0	1.274999619	-14.25493336	-14.25493336
393	1	0.0	-1.274999619	-6.272171021	-13.11453819
394	1	0.0	-1.274999619	-9.69335556	-11.97414398
395	2	0.0	0	-9.123156548	-15.96552467
396	1	0.0	-1.274999619	-8.552960396	-14.25493336
397	1	0.0	-3.824999809	-8.552960396	-14.25493336
398	2	0.0	0	-7.98276329	-12.54434204
399	1	0.0	-1.274999619	-7.412565231	-10.83374977
400	1	0.0	-3.824999809	-7.412565231	-10.83374977
401	2	0.0	-2.550000191	-6.842368126	-14.82513046
402	1	0.0	-3.824999809	-6.272171021	-13.11453819
403	1	0.0	-6.375	-6.272171021	-13.11453819
404	2	0.0	-2.550000191	-10.26355171	-13.68473625
405	1	0.0	-3.824999809	-9.69335556	-11.97414398
406	1	0.0	-6.375	-9.69335556	-11.97414398
407	2	0.0	-5.099999905	-9.123156548	-15.96552467
408	1	0.0	-6.375	-8.552960396	-14.25493336
409	1	0.0	-8.925000191	-8.552960396	-14.25493336
410	2	0.0	-5.099999905	-7.98276329	-12.54434204
411	1	0.0	-6.375	-7.412565231	-10.83374977
412	1	0.0	-8.925000191	-7.412565231	-10.83374977
413	2	0.0	-7.649999619	-6.842368126	-14.82513046
414	1	0.0	-8.925000191	-6.272171021	-13.11453819
415	1	0.0	8.925000191	-6.272171021	-13.11453819
416	2	0.0	-7.649999619	-10.26355171	-13.68473625
417	1	0.0	-8.925000191	-9.69335556	-11.97414398
418	1	0.0	8.925000191	-9.69335556	-11.97414398
419	2	0.0	-10.19999981	-9.123156548	-15.96552467
420	1	0.0	8.925000191	-8.552960396	-14.25493336
421	1	0.0	6.374999046	-8.552960396	-14.25493336
422	2	0.0	-10.19999981	-7.98276329	-12.54434204
423	1	0.0	8.925000191	-7.412565231	-10.83374977
424	1	0.0	6.374999046	-7.412565231	-10.83374977
425	2	0.0	7.650000572	-6.842368126	-14.82513046
426	1	0.0	6.374999046	-6.272171021	-13.11453819
427	1	0.0	3.824999809	-6.272171021	-13.11453819
428	2	0.0	7.650000572	-10.26355171	-13.68473625
429	1	0.0	6.374999046	-9.69335556	-11.97414398
430	1	0.0	3.824999809	-9.69335556	-11.97414398
431	2	0.0	5.099999428	-9.123156548	-15.96552467
432	1	0.0	3.824999809	-8.552960396	-14.25493336
433	1	0.0	1.274999619	-8.552960396	-14.25493336
434	2	0.0	5.099999428	-7.98276329	-12.54434204
435	1	0.0	3.824999809	-7.412565231	-10.83374977
436	1	0.0	1.274999619	-7.412565231	-10.83374977
437	2	0.0	2.550000191	-6.842368126	-14.82513046
438	1	0.0	1.274999619	-6.272171021	-13.11453819
439	2	0.0	2.550000191	-10.26355171	-13.68473625
440	1	0.0	1.274999619	-9.69335556	-11.97414398
441	1	0.0	-1.274999619	-1.71059227	-10.83374977
442	1	0.0	-1.274999619	-5.13177681	-9.69335556
443	2	0.0	0	-4.561578751	-13.68473625
444	1	0.0	-1.274999619	-3.991382599	-11.97414398
445	1	0.0	-3.824999809	-3.991382599	-11.97414398
446	2	0.0	0	-3.421182632	-10.26355171
447	1	0.0	-1.274999619	-2.850986481	-8.552960396
448	1	0.0	-3.824999809	-2.850986481	-8.552960396
449	2	0.0	-2.550000191	-2.280790329	-12.54434204
450	1	0.0	-3.824999809	-1.71059227	-10.83374977
451	1	0.0	-6.375	-1.71059227	-10.83374977
452	2	0.0	-2.550000191	-5.701972961	-11.40394688
453	1	0.0	-3.824999809	-5.13177681	-9.69335556
454	1	0.0	-6.375	-5.13177681	-9.69335556
455	2	0.0	-5.099999905	-4.561578751	-13.68473625
456	1	0.0	-6.375	-3.991382599	-11.97414398
457	1	0.0	-8.925000191	-3.991382599	-11.97414398
458	2	0.0	-5.099999905	-3.421182632	-10.26355171
459	1	0.0	-6.375	-2.850986481	-8.552960396
460	1	0.0	-8.925000191	-2.850986481	-8.552960396
461	2	0.0	-7.649999619	-2.280790329	-12.54434204
462	1	0.0	-8.925000191	-1.71059227	-10.83374977
463	1	0.0	8.925000191	-1.71059227	-10.83374977
464	2	0.0	-7.649999619	-5.701972961	-11.40394688
465	1	0.0	-8.925000191	-5.13177681	-9.69335556
466	1	0.0	8.925000191	-5.13177681	-9.69335556
467	2	0.0	-10.19999981	-4.561578751	-13.68473625
468	1	0.0	8.925000191	-3.991382599	-11.97414398
469	1	0.0	6.374999046	-3.991382599	-11.97414398
470	2	0.0	-10.19999981	-3.421182632	-10.26355171
471	1	0.0	8.925000191	-2.850986481	-8.552960396
472	1	0.0	6.374999046	-2.850986481	-8.552960396
473	2	0.0	7.650000572	-2.280790329	-12.54434204
474	1	0.0	6.374999046	-1.71059227	-10.83374977
475	1	0.0	3.824999809	-1.71059227	-10.83374977
476	2	0.0	7.650000572	-5.701972961	-11.40394688
477	1	0.0	6.374999046	-5.13177681	-9.69335556
478	1	0.0	3.824999809	-5.13177681	-9.69335556
479	2	0.0	5.099999428	-4.561578751	-13.68473625
480	1	0.0	3.824999809	-3.991382599	-11.97414398
481	1	0.0	1.274999619	-3.991382599	-11.97414398
482	2	0.0	5.099999428	-3.421182632	-10.26355171
483	1	0.0	3.824999809	-2.850986481	-8.552960396
484	1	0.0	1.274999619	-2.850986481	-8.552960396
485	2	0.0	2.550000191	-2.280790329	-12.54434204
486	1	0.0	1.274999619	-1.71059227	-10.83374977
487	2	0.0	2.550000191	-5.701972961	-11.40394688
488	1	0.0	1.274999619	-5.13177681	-9.69335556
489	1	0.0	-1.274999619	-0.5701961517	-7.412565231
490	2	0.0	0	0	-11.40394688
491	2	0.0	-2.550000191	-1.140394211	-9.123156548
492	1	0.0	-3.824999809	-0.5701961517	-7.412565231
493	1	0.0	-6.375	-0.5701961517	-7.412565231
494	2	0.0	-5.099999905	0	-11.40394688
495	2	0.0	-7.649999619	-1.140394211	-9.123156548
496	1	0.0	-8.925000191	-0.5701961517	-7.412565231
497	1	0.0	8.925000191	-0.5701961517	-7.412565231
498	2	0.0	-10.19999981	0	-11.40394688
499	2	0.0	7.650000572	-1.140394211	-9.123156548
500	1	0.0	6.374999046	-0.5701961517	-7.412565231
501	1	0.0	3.824999809	-0.5701961517	-7.412565231
502	2	0.0	5.099999428	0	-11.40394688
503	2	0.0	2.550000191	-1.140394211	-9.123156548
504	1	0.0	1.274999619	-0.5701961517	-7.412565231
505	1	0.0	-1.274999619	3.991380692	-22.23769569
506	1	0.0	-3.824999809	3.991380692	-22.23769569
507	1	0.0	-6.375	3.991380692	-22.23769569
508	1	0.0	-8.925000191	3.991380692	-22.23769569
509	1	0.0	8.925000191	3.991380692	-22.23769569
510	1	0.0	6.374999046	3.991380692	-22.23769569
511	1	0.0	3.824999809	3.991380692	-22.23769569
512	1	0.0	1.274999619	3.991380692	-22.23769569
513	1	0.0	-1.274999619	9.693353653	-22.23769569
514	1	0.0	-1.274999619	6.272171021	-21.09730148
515	2	0.0	0	7.98276329	-21.66749954
516	1	0.0	-1.274999619	8.552959442	-19.95690727
517	1	0.0	-3.824999809	8.552959442	-19.95690727
518	1	0.0	-3.824999809	9.693353653	-22.23769569
519	1	0.0	-6.375	9.693353653	-22.23769569
520	1	0.0	-3.824999809	6.272171021	-21.09730148
521	1	0.0	-6.375	6.272171021	-21.09730148
522	2	0.0	-5.099999905	7.98276329	-21.66749954
523	1	0.0	-6.375	8.552959442	-19.95690727
524	1	0.0	-8.925000191	8.552959442	-19.95690727
525	1	0.0	-8.925000191	9.693353653	-22.23769569
526	1	0.0	8.925000191	9.693353653	-22.23769569
527	1	0.0	-8.925000191	6.272171021	-21.09730148
528	1	0.0	8.925000191	6.272171021	-21.09730148
529	2	0.0	-10.19999981	7.98276329	-21.66749954
530	1	0.0	8.925000191	8.552959442	-19.95690727
531	1	0.0	6.374999046	8.552959442	-19.95690727
532	1	0.0	6.374999046	9.693353653	-22.23769569
533	1	0.0	3.824999809	9.693353653	-22.23769569
534	1	0.0	6.374999046	6.272171021	-21.09730148
535	1	0.0	3.824999809	6.272171021	-21.09730148
536	2	0.0	5.099999428	7.98276329	-21.66749954
537	1	0.0	3.824999809	8.552959442	-19.95690727
538	1	0.0	1.274999619	8.552959442	-19.95690727
539	1	0.0	1.274999619	9.693353653	-22.23769569
540	1	0.0	1.274999619	6.272171021	-21.09730148
541	1	0.0	-1.274999619	14.25493431	-19.95690727
542	1	0.0	-1.274999619	10.83374977	-18.81651306
543	1	0.0	-1.274999619	11.97414207	-21.09730148
544	1	0.0	-3.824999809	11.97414207	-21.09730148
545	2	0.0	0	12.54434013	-19.38670921
546	1	0.0	-1.274999619	13.11453819	-17.67611694
547	1	0.0	-3.824999809	13.11453819	-17.67611694
548	2	0.0	-2.550000191	13.68473625	-21.66749954
549	1	0.0	-3.824999809	14.25493431	-19.95690727
550	1	0.0	-6.375	14.25493431	-19.95690727
551	2	0.0	-2.550000191	10.26355171	-20.52710342
552	1	0.0	-3.824999809	10.83374977	-18.81651306
553	1	0.0	-6.375	10.83374977	-18.81651306
554	1	0.0	-6.375	11.97414207	-21.09730148
555	1	0.0	-8.925000191	11.97414207	-21.09730148
556	2	0.0	-5.099999905	12.54434013	-19.38670921
557	1	0.0	-6.375	13.11453819	-17.67611694
558	1	0.0	-8.925000191	13.11453819	-17.67611694
559	2	0.0	-7.649999619	13.68473625	-21.66749954
560	1	0.0	-8.925000191	14.25493431	-19.95690727
561	1	0.0	8.925000191	14.25493431	-19.95690727
562	2	0.0	-7.649999619	10.26355171	-20.52710342
563	1	0.0	-8.925000191	10.83374977	-18.81651306
564	1	0.0	8.925000191	10.83374977	-18.81651306
565	1	0.0	8.925000191	11.97414207	-21.09730148
566	1	0.0	6.374999046	11.97414207	-21.09730148
567	2	0.0	-10.19999981	12.54434013	-19.38670921
568	1	0.0	8.925000191	13.11453819	-17.67611694
569	1	0.0	6.374999046	13.11453819	-17.67611694
570	2	0.0	7.650000572	13.68473625	-21.66749954
571	1	0.0	6.374999046	14.25493431	-19.95690727
572	1	0.0	3.824999809	14.25493431	-19.95690727
573	2	0.0	7.650000572	10.26355171	-20.52710342
574	1	0.0	6.374999046	10.83374977	-18.81651306
575	1	0.0	3.824999809	10.83374977	-18.81651306
576	1	0.0	3.824999809	11.97414207	-21.09730148
577	1	0.0	1.274999619	11.97414207	-21.09730148
578	2	0.0	5.099999428	12.54434013	-19.38670921
579	1	0.0	3.824999809	13.11453819	-17.67611694
580	1	0.0	1.274999619	13.11453819	-17.67611694
581	2	0.0	2.550000191	13.68473625	-21.66749954
582	1	0.0	1.274999619	14.25493431	-19.95690727
583	2	0.0	2.550000191	10.26355171	-20.52710342
584	1	0.0	1.274999619	10.83374977	-18.81651306
585	1	0.0	-1.274999619	18.81651497	-17.67611694
586	1	0.0	-1.274999619	15.39532661	-16.53572273
587	2	0.0	0	15.96552849	-20.52710342
588	1	0.0	-1.274999619	16.53572273	-18.81651306
589	1	0.0	-3.824999809	16.53572273	-18.81651306
590	2	0.0	0	17.10592079	-17.10592079
591	1	0.0	-1.274999619	17.67611885	-15.39532852
592	1	0.0	-3.824999809	17.67611885	-15.39532852
593	2	0.0	-2.550000191	18.2463131	-19.38670921
594	1	0.0	-3.824999809	18.81651497	-17.67611694
595	1	0.0	-6.375	18.81651497	-17.67611694
596	2	0.0	-2.550000191	14.82512856	-18.246315
597	1	0.0	-3.824999809	15.39532661	-16.53572273
598	1	0.0	-6.375	15.39532661	-16.53572273
599	2	0.0	-5.099999905	15.96552849	-20.52710342
600	1	0.0	-6.375	16.53572273	-18.81651306
601	1	0.0	-8.925000191	16.53572273	-18.81651306
602	2	0.0	-5.099999905	17.10592079	-17.10592079
603	1	0.0	-6.375	17.67611885	-15.39532852
604	1	0.0	-8.925000191	17.67611885	-15.39532852
605	2	0.0	-7.649999619	18.2463131	-19.38670921
606	1	0.0	-8.925000191	18.81651497	-17.67611694
607	1	0.0	8.925000191	18.81651497	-17.67611694
608	2	0.0	-7.649999619	14.82512856	-18.246315
609	1	0.0	-8.925000191	15.39532661	-16.53572273
610	1	0.0	8.925000191	15.39532661	-16.53572273
611	2	0.0	-10.19999981	15.96552849	-20.52710342
612	1	0.0	8.925000191	16.53572273	-18.81651306
613	1	0.0	6.374999046	16.53572273	-18.81651306
614	2	0.0	-10.19999981	17.10592079	-17.10592079
615	1	0.0	8.925000191	17.67611885	-15.39532852
616	1	0.0	6.374999046	17.67611885	-15.39532852
617	2	0.0	7.650000572	18.2463131	-19.38670921
618	1	0.0	6.374999046	18.81651497	-17.67611694
619	1	0.0	3.824999809	18.81651497	-17.67611694
620	2	0.0	7.650000572	14.82512856	-18.246315
621	1	0.0	6.374999046	15.39532661	-16.53572273
622	1	0.0	3.824999809	15.39532661	-16.53572273
623	2	0.0	5.099999428	15.96552849	-20.52710342
624	1	0.0	3.824999809	16.53572273	-18.81651306
625	1	0.0	1.274999619	16.53572273	-18.81651306
626	2	0.0	5.099999428	17.10592079	-17.10592079
627	1	0.0	3.824999809	17.67611885	-15.39532852
628	1	0.0	1.274999619	17.67611885	-15.39532852
629	2	0.0	2.550000191	18.2463131	-19.38670921
630	1	0.0	1.274999619	18.81651497	-17.67611694
631	2	0.0	2.550000191	14.82512856	-18.246315
632	1	0.0	1.274999619	15.39532661	-16.53572273
633	1	0.0	-1.274999619	-22.23769569	-15.39532852
634	1	0.0	-1.274999619	19.95690727	-14.25493336
635	2	0.0	0	20.52710533	-18.246315
636	1	0.0	-1.274999619	21.09729958	-16.53572273